                               Psi4 1.3.2 release

  ==> Input File <==

--------------------------------------------------------------------------

molecule {
  0 1
   H    0.0   0.0   0.0
   H    1.4   0.0   0.0
  units bohr
}

set {
    basis         sto-3g
    guess         core
    scf_type      pk
}

energy('scf')
--------------------------------------------------------------------------

    Molecular point group: d2h

    Geometry (in Bohr), charge = 0, multiplicity = 1:

       Center              X                  Y                   Z               Mass
    ------------   -----------------  -----------------  -----------------  -----------------
         H           -0.700000000000    -0.000000000000     0.000000000000     1.007825032230
         H            0.700000000000     0.000000000000     0.000000000000     1.007825032230

  Charge       = 0
  Multiplicity = 1
  Basis Set: STO-3G
    Blend: STO-3G

    Orbital Energies [Eh]
    ---------------------

    Doubly Occupied:

       1Ag    -0.578203

  @RHF Final Energy:    -1.11671432506257

   => Energetics <=

    Nuclear Repulsion Energy =              0.7142857142857142
    One-Electron Energy =                  -2.5055941236716528
    Two-Electron Energy =                   0.6745940843233682
    Total Energy =                         -1.1167143250625704

  Dipole Moment: [D]
     X:     0.0000      Y:     0.0000      Z:     0.0000     Total:     0.0000

*** Psi4 exiting successfully. Buy a developer a beer!
